 Gaussian 09, Revision D.01,
 Gaussian 09:  ES64L-G09RevD.01 24-Apr-2013

 ----------------------------------------------------------------------
 # p b3lyp/gen empiricaldispersion=gd2 integral=ultrafine td(singlets,n
 states=10) guess=read geom=check
 ----------------------------------------------------------------------

 -----
 water
 -----
 Structure from the checkpoint file:  "water-td.chk"
 Charge =  0 Multiplicity = 1

                         Standard orientation:
 ---------------------------------------------------------------------
 Center     Atomic      Atomic             Coordinates (Angstroms)
 Number     Number       Type             X           Y           Z
 ---------------------------------------------------------------------
      1          8           0        0.000000    0.115858    0.000000
      2          1           0        0.768797   -0.463434    0.000000
      3          1           0       -0.768797   -0.463434    0.000000
 ---------------------------------------------------------------------

 SCF Done:  E(RB3LYP) =  -76.4339762675     A.U. after    1 cycles

 Excitation energies and oscillator strengths:

 Excited State   1:      Singlet-A"     7.2153 eV  171.83 nm  f=0.0238  <S**2>=0.000
       5 ->  6         0.70699
 This state for optimization and/or second-order correction.
 Total Energy, E(TD-HF/TD-KS) =  -76.1688184979
 Copying the excited state density for this state as the 1-particle RhoCI density.

 Excited State   2:      Singlet-A"     9.1350 eV  135.72 nm  f=0.0000  <S**2>=0.000
       5 ->  7         0.70569

 Excited State   3:      Singlet-A'     9.4584 eV  131.08 nm  f=0.0862  <S**2>=0.000
       4 ->  6         0.70452

 Excited State   4:      Singlet-A'    11.4233 eV  108.54 nm  f=0.0558  <S**2>=0.000
       4 ->  7         0.70503

 Excited State   5:      Singlet-A'    13.7744 eV   90.01 nm  f=0.2419  <S**2>=0.000
       3 ->  6         0.70370

 Excited State   6:      Singlet-A"    16.3071 eV   76.03 nm  f=0.0000  <S**2>=0.000
       5 ->  8         0.70587

 Excited State   7:      Singlet-A'    16.4972 eV   75.15 nm  f=0.0896  <S**2>=0.000
       3 ->  7         0.69136

 Excited State   8:      Singlet-A"    17.8092 eV   69.62 nm  f=0.1322  <S**2>=0.000
       5 ->  9         0.70607

 Excited State   9:      Singlet-A'    19.3567 eV   64.05 nm  f=0.1795  <S**2>=0.000
       3 ->  9         0.14675
       4 ->  8         0.68966

 Excited State  10:      Singlet-A'    19.6466 eV   63.11 nm  f=0.0043  <S**2>=0.000
       4 ->  9         0.69319

 The electronic state is 1-A'.
 Alpha  occ. eigenvalues --  -19.10286  -1.00659  -0.53108  -0.37141  -0.29790
 Alpha virt. eigenvalues --    0.02517   0.10149   0.37815   0.41189   0.76344
 Alpha virt. eigenvalues --    0.77726   0.89200   1.16425   1.99981   2.04498
 Alpha virt. eigenvalues --    2.76672   2.77804   2.80821   3.17342   3.48395

 Mulliken charges:
               1
     1  O   -0.797433
     2  H    0.398716
     3  H    0.398716
 Sum of Mulliken charges =   0.00000

 Dipole moment (field-independent basis, Debye):
    X=              0.0000    Y=             -2.2605    Z=              0.0000  Tot=              2.2605
 Quadrupole moment (field-independent basis, Debye-Ang):
   XX=             -4.2086   YY=             -6.1801   ZZ=             -7.3434
   XY=              0.0000   XZ=              0.0000   YZ=              0.0000

 Normal termination of Gaussian 09 at Wed Sep 22 21:55:41 2021.
